# vtk DataFile Version 2.0
Fluid velocity and density\n
ASCII

DATASET STRUCTURED_POINTS
DIMENSIONS 5 5 1
ORIGIN 0 0 0
SPACING 1 1 1

POINT_DATA 25
SCALARS density float
LOOKUP_TABLE default
273 
804 
256
60 
867 
509
281 
640 
393
228 
814 
75
894 
507 
362
195 
89 
150
178 
163 
847
586 
171 
559
481 

VECTORS fluidvelocity float
-0.54 -0.54 -0.84
0.41 0.41 -0.91
0.99 0.99 -0.14
0.66 0.66 0.75
-0.28 -0.28 0.96
0.41 0.41 -0.91
0.99 0.99 -0.14
0.66 0.66 0.75
-0.28 -0.28 0.96
-0.96 -0.96 0.28
0.99 0.99 -0.14
0.66 0.66 0.75
-0.28 -0.28 0.96
-0.96 -0.96 0.28
-0.75 -0.75 -0.65
0.66 0.66 0.75
-0.28 -0.28 0.96
-0.96 -0.96 0.28
-0.75 -0.75 -0.65
0.14 0.14 -0.99
-0.28 -0.28 0.96
-0.96 -0.96 0.28
-0.75 -0.75 -0.65
0.14 0.14 -0.99
0.91 0.91 -0.42




 
