# vtk DataFile Version 2.0
Fluid velocity and density\n
ASCII

DATASET STRUCTURED_POINTS
DIMENSIONS 5 5 1
ORIGIN 0 0 0
SPACING 1 1 1

POINT_DATA 25
SCALARS density float
LOOKUP_TABLE default
473 
104 
256
460 
167 
409
281 
640 
393
228 
114 
475
94 
507 
962
595 
79 
50
278 
763 
147
586 
171 
559
481 

VECTORS fluidvelocity float 
0.14 0.14 -0.99
0.91 0.91 -0.42
0.84 0.84 0.54 
0 0 1                 
-0.84 -0.84 0.54 
0.91 0.91 -0.42
0.84 0.84 0.54 
0 0 1                 
-0.84 -0.84 0.54 
-0.91 -0.91 -0.42 
0.84 0.84 0.54 
0 0 1                 
-0.84 -0.84 0.54 
-0.91 -0.91 -0.42
-0.14 -0.14 -0.99 
0 0 1                 
-0.84 -0.84 0.54 
-0.91 -0.91 -0.42
-0.14 -0.14 -0.99
0.76 0.76 -0.65
-0.84 -0.84 0.54 
-0.91 -0.91 -0.42
-0.14 -0.14 -0.99
0.76 0.76 -0.65
0.96 0.96 0.28




