# vtk DataFile Version 2.0
Fluid velocity and density\n
ASCII

DATASET STRUCTURED_POINTS
DIMENSIONS 5 5 1
ORIGIN 0 0 0
SPACING 1 1 1

POINT_DATA 25
SCALARS density float
LOOKUP_TABLE default
673 
904 
226
460 
467 
97
15 
640 
93
128 
114 
475
94 
507 
262
595 
79 
650
278 
463 
917
586 
571 
559
181 

VECTORS fluidvelocity float 
-0.75 -0.75 -0.65
0.14 0.14 -0.99
0.91 0.91 -0.42
0.84 0.84 0.54 
0 0 1 

0.14 0.14 -0.99
0.91 0.91 -0.42
0.84 0.84 0.54 
0 0 1
-0.84 -0.84 0.54 

0.91 0.91 -0.42
0.84 0.84 0.54 
0 0 1
-0.84 -0.84 0.54
-0.91 -0.91 -0.42
0.84 0.84 0.54 
0 0 1
-0.84 -0.84 0.54
-0.91 -0.91 -0.42
-0.14 -0.14 -0.99
0 0 1
-0.84 -0.84 0.54
-0.91 -0.91 -0.42
-0.14 -0.14 -0.99
0.76 0.76 -0.65






                