# vtk DataFile Version 2.0
Fluid velocity and density\n
ASCII

DATASET STRUCTURED_POINTS
DIMENSIONS 5 5 1
ORIGIN 0 0 0
SPACING 1 1 1

POINT_DATA 25
SCALARS density float
LOOKUP_TABLE default
773 
904 
956
160 
467 
509
781 
640 
393
228 
514 
475
94 
507 
162
595 
79 
250
478 
763 
947
586 
171 
559
481 

VECTORS fluidvelocity float 
0.91 0.91  -0.42
0.84 0.84 0.54
0 0 1                 
-0.84 -0.84 0.54      
-0.91 -0.91 -0.42
0.84 0.84 0.54
0 0 1                 
-0.84 -0.84 0.54      
-0.91 -0.91 -0.42
-0.14 -0.14 -0.99
0 0 1                 
-0.84 -0.84 0.54      
-0.91 -0.91 -0.42
-0.14 -0.14 -0.99
0.76 0.76 -0.65
-0.84 -0.84 0.54      
-0.91 -0.91 -0.42
-0.14 -0.14 -0.99
0.76 0.76 -0.65
0.96 0.96 0.28
-0.91 -0.91 -0.42
-0.14 -0.14 -0.99
0.76 0.76 -0.65
0.96 0.96 0.28
0.28 0.28 0.96





